LAMMPS (22 Jul 2025)
OMP_NUM_THREADS environment is not set. Defaulting to 1 thread.
  using 1 OpenMP thread(s) per MPI task
log /home/Ethan/Projects/atom_sims/latparam/000_data/logs/log_100.0.lammps
